# vtk DataFile Version 2.0
2D Heat Equation Data
ASCII
DATASET STRUCTURED_POINTS
DIMENSIONS 200 200 1
ORIGIN 0 0 0
SPACING 1 1 1
POINT_DATA 40000
SCALARS temperature float 1
LOOKUP_TABLE default
100.000000
100.000000
100.000000
100.000000
100.000000
100.000000
100.000000
100.000000
100.000000
100.000000
100.000000
100.000000
100.000000
100.000000
100.000000
100.000000
100.000000
100.000000
100.000000
100.000000
100.000000
100.000000
100.000000
100.000000
100.000000
100.000000
100.000000
100.000000
100.000000
100.000000
100.000000
100.000000
100.000000
100.000000
100.000000
100.000000
100.000000
100.000000
100.000000
100.000000
100.000000
100.000000
100.000000
100.000000
100.000000
100.000000
100.000000
100.000000
100.000000
100.000000
100.000000
100.000000
100.000000
100.000000
100.000000
100.000000
100.000000
100.000000
100.000000
100.000000
100.000000
100.000000
100.000000
100.000000
100.000000
100.000000
100.000000
100.000000
100.000000
100.000000
100.000000
100.000000
100.000000
100.000000
100.000000
100.000000
100.000000
100.000000
100.000000
100.000000
100.000000
100.000000
100.000000
100.000000
100.000000
100.000000
100.000000
100.000000
100.000000
100.000000
100.000000
100.000000
100.000000
100.000000
100.000000
100.000000
100.000000
100.000000
100.000000
100.000000
100.000000
100.000000
100.000000
100.000000
100.000000
100.000000
100.000000
100.000000
100.000000
100.000000
100.000000
100.000000
100.000000
100.000000
100.000000
100.000000
100.000000
100.000000
100.000000
100.000000
100.000000
100.000000
100.000000
100.000000
100.000000
100.000000
100.000000
100.000000
100.000000
100.000000
100.000000
100.000000
100.000000
100.000000
100.000000
100.000000
100.000000
100.000000
100.000000
100.000000
100.000000
100.000000
100.000000
100.000000
100.000000
100.000000
100.000000
100.000000
100.000000
100.000000
100.000000
100.000000
100.000000
100.000000
100.000000
100.000000
100.000000
100.000000
100.000000
100.000000
100.000000
100.000000
100.000000
100.000000
100.000000
100.000000
100.000000
100.000000
100.000000
100.000000
100.000000
100.000000
100.000000
100.000000
100.000000
100.000000
100.000000
100.000000
100.000000
100.000000
100.000000
100.000000
100.000000
100.000000
100.000000
100.000000
100.000000
100.000000
100.000000
100.000000
100.000000
100.000000
100.000000
100.000000
100.000000
100.000000
100.000000
100.000000
100.000000
100.000000
100.000000
99.872867
99.745987
99.619613
99.493994
99.369374
99.245993
99.124081
99.003862
98.885547
98.769341
98.655432
98.543999
98.435203
98.329197
98.226112
98.126072
98.029176
97.935516
97.845161
97.758173
97.674590
97.594441
97.517737
97.444478
97.374646
97.308218
97.245149
97.185394
97.128887
97.075563
97.025338
96.978131
96.933846
96.892388
96.853651
96.817531
96.783916
96.752698
96.723762
96.696995
96.672284
96.649517
96.628582
96.609372
96.591778
96.575697
96.561028
96.547675
96.535543
96.524543
96.514589
96.505600
96.497498
96.490210
96.483668
96.477808
96.472568
96.467892
96.463728
96.460028
96.456746
96.453841
96.451274
96.449011
96.447020
96.445272
96.443740
96.442400
96.441231
96.440212
96.439326
96.438558
96.437893
96.437318
96.436822
96.436395
96.436029
96.435715
96.435446
96.435216
96.435021
96.434855
96.434714
96.434595
96.434494
96.434409
96.434338
96.434278
96.434228
96.434187
96.434152
96.434124
96.434101
96.434083
96.434068
96.434057
96.434049
96.434044
96.434041
96.434041
96.434044
96.434049
96.434057
96.434068
96.434083
96.434101
96.434124
96.434152
96.434187
96.434228
96.434278
96.434338
96.434409
96.434494
96.434595
96.434714
96.434855
96.435021
96.435216
96.435446
96.435715
96.436029
96.436395
96.436822
96.437318
96.437893
96.438558
96.439326
96.440212
96.441231
96.442400
96.443740
96.445272
96.447020
96.449011
96.451274
96.453841
96.456746
96.460028
96.463728
96.467892
96.472568
96.477808
96.483668
96.490210
96.497498
96.505600
96.514589
96.524543
96.535543
96.547675
96.561028
96.575697
96.591778
96.609372
96.628582
96.649517
96.672284
96.696995
96.723762
96.752698
96.783916
96.817531
96.853651
96.892388
96.933846
96.978131
97.025338
97.075563
97.128887
97.185394
97.245149
97.308218
97.374646
97.444478
97.517737
97.594441
97.674590
97.758173
97.845161
97.935516
98.029176
98.126072
98.226112
98.329197
98.435203
98.543999
98.655432
98.769341
98.885547
99.003862
99.124081
99.245993
99.369374
99.493994
99.619613
99.745987
99.872867
100.000000
100.000000
99.745987
99.492481
99.239985
98.988998
98.740008
98.493490
98.249910
98.009710
97.773319
97.541137
97.313548
97.090901
96.873530
96.661726
96.455765
96.255880
96.062285
95.875149
95.694624
95.520818
95.353821
95.193681
95.040428
94.894053
94.754532
94.621805
94.495797
94.376402
94.263505
94.156959
94.056614
93.962291
93.873812
93.790976
93.713581
93.641411
93.574252
93.511876
93.454063
93.400581
93.351210
93.305720
93.263894
93.225510
93.190358
93.158228
93.128921
93.102240
93.078001
93.056022
93.036135
93.018174
93.001986
92.987426
92.974355
92.962645
92.952176
92.942834
92.934515
92.927121
92.920564
92.914759
92.909631
92.905110
92.901132
92.897639
92.894578
92.891901
92.889565
92.887529
92.885760
92.884224
92.882895
92.881746
92.880756
92.879903
92.879171
92.878543
92.878007
92.877548
92.877158
92.876826
92.876544
92.876306
92.876105
92.875935
92.875792
92.875673
92.875573
92.875490
92.875422
92.875365
92.875320
92.875283
92.875254
92.875231
92.875215
92.875205
92.875200
92.875200
92.875205
92.875215
92.875231
92.875254
92.875283
92.875320
92.875365
92.875422
92.875490
92.875573
92.875673
92.875792
92.875935
92.876105
92.876306
92.876544
92.876826
92.877158
92.877548
92.878007
92.878543
92.879171
92.879903
92.880756
92.881746
92.882895
92.884224
92.885760
92.887529
92.889565
92.891901
92.894578
92.897639
92.901132
92.905110
92.909631
92.914759
92.920564
92.927121
92.934515
92.942834
92.952176
92.962645
92.974355
92.987426
93.001986
93.018174
93.036135
93.056022
93.078001
93.102240
93.128921
93.158228
93.190358
93.225510
93.263894
93.305720
93.351210
93.400581
93.454063
93.511876
93.574252
93.641411
93.713581
93.790976
93.873812
93.962291
94.056614
94.156959
94.263505
94.376402
94.495797
94.621805
94.754532
94.894053
95.040428
95.193681
95.353821
95.520818
95.694624
95.875149
96.062285
96.255880
96.455765
96.661726
96.873530
97.090901
97.313548
97.541137
97.773319
98.009710
98.249910
98.493490
98.740008
98.988998
99.239985
99.492481
99.745987
100.000000
100.000000
99.619613
99.239985
98.861870
98.486015
98.113148
97.743988
97.379223
97.019523
96.665523
96.317830
95.977010
95.643598
95.318078
95.000905
94.692473
94.393148
94.103232
93.822999
93.552656
93.292385
93.042301
92.802494
92.572992
92.353799
92.144861
91.946105
91.757403
91.578613
91.409544
91.249996
91.099723
90.958479
90.825977
90.701932
90.586030
90.477958
90.377383
90.283978
90.197399
90.117314
90.043377
89.975258
89.912620
89.855142
89.802500
89.754387
89.710498
89.670546
89.634246
89.601334
89.571551
89.544655
89.520414
89.498610
89.479036
89.461501
89.445823
89.431834
89.419375
89.408304
89.398484
89.389791
89.382112
89.375342
89.369385
89.364155
89.359571
89.355562
89.352062
89.349014
89.346364
89.344066
89.342075
89.340355
89.338871
89.337595
89.336498
89.335558
89.334754
89.334068
89.333483
89.332986
89.332565
89.332208
89.331906
89.331652
89.331439
89.331260
89.331111
89.330987
89.330884
89.330799
89.330731
89.330675
89.330632
89.330599
89.330575
89.330559
89.330552
89.330552
89.330559
89.330575
89.330599
89.330632
89.330675
89.330731
89.330799
89.330884
89.330987
89.331111
89.331260
89.331439
89.331652
89.331906
89.332208
89.332565
89.332986
89.333483
89.334068
89.334754
89.335558
89.336498
89.337595
89.338871
89.340355
89.342075
89.344066
89.346364
89.349014
89.352062
89.355562
89.359571
89.364155
89.369385
89.375342
89.382112
89.389791
89.398484
89.408304
89.419375
89.431834
89.445823
89.461501
89.479036
89.498610
89.520414
89.544655
89.571551
89.601334
89.634246
89.670546
89.710498
89.754387
89.802500
89.855142
89.912620
89.975258
90.043377
90.117314
90.197399
90.283978
90.377383
90.477958
90.586030
90.701932
90.825977
90.958479
91.099723
91.249996
91.409544
91.578613
91.757403
91.946105
92.144861
92.353799
92.572992
92.802494
93.042301
93.292385
93.552656
93.822999
94.103232
94.393148
94.692473
95.000905
95.318078
95.643598
95.977010
96.317830
96.665523
97.019523
97.379223
97.743988
98.113148
98.486015
98.861870
99.239985
99.619613
100.000000
100.000000
99.493994
98.988998
98.486015
97.986035
97.490035
96.998961
96.513738
96.035248
95.564346
95.101828
94.648459
94.204937
93.771923
93.350001
92.939718
92.541537
92.155886
91.783102
91.423489
91.077260
90.744595
90.425588
90.120302
89.828716
89.550785
89.286386
89.035374
88.797535
88.572639
88.360395
88.160503
87.972608
87.796355
87.631341
87.477168
87.333403
87.199619
87.075364
86.960198
86.853661
86.755311
86.664694
86.581375
86.504912
86.434889
86.370884
86.312504
86.259356
86.211071
86.167288
86.127672
86.091893
86.059647
86.030642
86.004606
85.981279
85.960424
85.941814
85.925243
85.910514
85.897452
85.885888
85.875674
85.866668
85.858744
85.851786
85.845688
85.840355
85.835701
85.831646
85.828121
85.825063
85.822415
85.820127
85.818154
85.816455
85.814997
85.813746
85.812677
85.811764
85.810986
85.810325
85.809764
85.809289
85.808888
85.808550
85.808266
85.808029
85.807830
85.807665
85.807528
85.807416
85.807325
85.807251
85.807193
85.807149
85.807117
85.807097
85.807086
85.807086
85.807097
85.807117
85.807149
85.807193
85.807251
85.807325
85.807416
85.807528
85.807665
85.807830
85.808029
85.808266
85.808550
85.808888
85.809289
85.809764
85.810325
85.810986
85.811764
85.812677
85.813746
85.814997
85.816455
85.818154
85.820127
85.822415
85.825063
85.828121
85.831646
85.835701
85.840355
85.845688
85.851786
85.858744
85.866668
85.875674
85.885888
85.897452
85.910514
85.925243
85.941814
85.960424
85.981279
86.004606
86.030642
86.059647
86.091893
86.127672
86.167288
86.211071
86.259356
86.312504
86.370884
86.434889
86.504912
86.581375
86.664694
86.755311
86.853661
86.960198
87.075364
87.199619
87.333403
87.477168
87.631341
87.796355
87.972608
88.160503
88.360395
88.572639
88.797535
89.035374
89.286386
89.550785
89.828716
90.120302
90.425588
90.744595
91.077260
91.423489
91.783102
92.155886
92.541537
92.939718
93.350001
93.771923
94.204937
94.648459
95.101828
95.564346
96.035248
96.513738
96.998961
97.490035
97.986035
98.486015
98.988998
99.493994
100.000000
100.000000
99.369374
98.740008
98.113148
97.490035
96.871877
96.259864
95.655137
95.058808
94.471927
93.895505
93.330475
92.777728
92.238064
91.712238
91.200903
90.704666
90.224029
89.759444
89.311257
88.879767
88.465165
88.067602
87.687122
87.323733
86.977346
86.647839
86.335000
86.038594
85.758303
85.493796
85.244668
85.010506
84.790839
84.585192
84.393044
84.213879
84.047142
83.892291
83.748757
83.615988
83.493412
83.380482
83.276639
83.181350
83.094078
83.014315
82.941554
82.875319
82.815140
82.760578
82.711203
82.666615
82.626426
82.590279
82.557829
82.528760
82.502767
82.479576
82.458922
82.440568
82.424287
82.409877
82.397146
82.385923
82.376047
82.367376
82.359777
82.353131
82.347329
82.342276
82.337883
82.334072
82.330772
82.327920
82.325461
82.323345
82.321527
82.319969
82.318636
82.317498
82.316529
82.315705
82.315006
82.314414
82.313914
82.313493
82.313139
82.312843
82.312595
82.312390
82.312219
82.312079
82.311965
82.311874
82.311802
82.311747
82.311707
82.311681
82.311669
82.311669
82.311681
82.311707
82.311747
82.311802
82.311874
82.311965
82.312079
82.312219
82.312390
82.312595
82.312843
82.313139
82.313493
82.313914
82.314414
82.315006
82.315705
82.316529
82.317498
82.318636
82.319969
82.321527
82.323345
82.325461
82.327920
82.330772
82.334072
82.337883
82.342276
82.347329
82.353131
82.359777
82.367376
82.376047
82.385923
82.397146
82.409877
82.424287
82.440568
82.458922
82.479576
82.502767
82.528760
82.557829
82.590279
82.626426
82.666615
82.711203
82.760578
82.815140
82.875319
82.941554
83.014315
83.094078
83.181350
83.276639
83.380482
83.493412
83.615988
83.748757
83.892291
84.047142
84.213879
84.393044
84.585192
84.790839
85.010506
85.244668
85.493796
85.758303
86.038594
86.335000
86.647839
86.977346
87.323733
87.687122
88.067602
88.465165
88.879767
89.311257
89.759444
90.224029
90.704666
91.200903
91.712238
92.238064
92.777728
93.330475
93.895505
94.471927
95.058808
95.655137
96.259864
96.871877
97.490035
98.113148
98.740008
99.369374
100.000000
100.000000
99.245993
98.493490
97.743988
96.998961
96.259864
95.528107
94.805070
94.092065
93.390367
92.701162
92.025591
91.364693
90.719452
90.090740
89.479372
88.886039
88.311375
87.755886
87.220022
86.704102
86.208394
85.733038
85.278128
84.843634
84.429487
84.035503
83.661468
83.307062
82.971943
82.655677
82.357817
82.077834
81.815198
81.569310
81.339577
81.125352
80.926001
80.740848
80.569239
80.410488
80.263937
80.128908
80.004754
79.890818
79.786476
79.691104
79.604112
79.524916
79.452967
79.387727
79.328695
79.275381
79.227332
79.184112
79.145315
79.110557
79.079481
79.051751
79.027058
79.005111
78.985647
78.968417
78.953196
78.939777
78.927970
78.917601
78.908516
78.900569
78.893634
78.887592
78.882339
78.877782
78.873837
78.870427
78.867487
78.864957
78.862783
78.860920
78.859327
78.857966
78.856807
78.855822
78.854986
78.854279
78.853681
78.853178
78.852755
78.852401
78.852105
78.851859
78.851655
78.851488
78.851351
78.851242
78.851156
78.851090
78.851043
78.851012
78.850997
78.850997
78.851012
78.851043
78.851090
78.851156
78.851242
78.851351
78.851488
78.851655
78.851859
78.852105
78.852401
78.852755
78.853178
78.853681
78.854279
78.854986
78.855822
78.856807
78.857966
78.859327
78.860920
78.862783
78.864957
78.867487
78.870427
78.873837
78.877782
78.882339
78.887592
78.893634
78.900569
78.908516
78.917601
78.927970
78.939777
78.953196
78.968417
78.985647
79.005111
79.027058
79.051751
79.079481
79.110557
79.145315
79.184112
79.227332
79.275381
79.328695
79.387727
79.452967
79.524916
79.604112
79.691104
79.786476
79.890818
80.004754
80.128908
80.263937
80.410488
80.569239
80.740848
80.926001
81.125352
81.339577
81.569310
81.815198
82.077834
82.357817
82.655677
82.971943
83.307062
83.661468
84.035503
84.429487
84.843634
85.278128
85.733038
86.208394
86.704102
87.220022
87.755886
88.311375
88.886039
89.479372
90.090740
90.719452
91.364693
92.025591
92.701162
93.390367
94.092065
94.805070
95.528107
96.259864
96.998961
97.743988
98.493490
99.245993
100.000000
100.000000
99.124081
98.249910
97.379223
96.513738
95.655137
94.805070
93.965123
93.136842
92.321683
91.521052
90.736244
89.968496
89.218921
88.488566
87.778339
87.089084
86.421495
85.776203
85.153687
84.554363
83.978496
83.426295
82.897822
82.393089
81.911970
81.454298
81.019777
80.608081
80.218769
79.851379
79.505350
79.180110
78.875001
78.589367
78.322482
78.073630
77.842039
77.626959
77.427597
77.243187
77.072935
76.916082
76.771849
76.639498
76.518281
76.407494
76.306434
76.214437
76.130852
76.055069
75.986489
75.924559
75.868739
75.818534
75.773463
75.733087
75.696985
75.664774
75.636087
75.610594
75.587982
75.567967
75.550285
75.534697
75.520980
75.508936
75.498381
75.489151
75.481093
75.474075
75.467973
75.462680
75.458096
75.454136
75.450720
75.447781
75.445256
75.443092
75.441241
75.439660
75.438314
75.437170
75.436199
75.435377
75.434683
75.434098
75.433607
75.433195
75.432851
75.432565
75.432329
75.432134
75.431976
75.431849
75.431749
75.431672
75.431617
75.431582
75.431564
75.431564
75.431582
75.431617
75.431672
75.431749
75.431849
75.431976
75.432134
75.432329
75.432565
75.432851
75.433195
75.433607
75.434098
75.434683
75.435377
75.436199
75.437170
75.438314
75.439660
75.441241
75.443092
75.445256
75.447781
75.450720
75.454136
75.458096
75.462680
75.467973
75.474075
75.481093
75.489151
75.498381
75.508936
75.520980
75.534697
75.550285
75.567967
75.587982
75.610594
75.636087
75.664774
75.696985
75.733087
75.773463
75.818534
75.868739
75.924559
75.986489
76.055069
76.130852
76.214437
76.306434
76.407494
76.518281
76.639498
76.771849
76.916082
77.072935
77.243187
77.427597
77.626959
77.842039
78.073630
78.322482
78.589367
78.875001
79.180110
79.505350
79.851379
80.218769
80.608081
81.019777
81.454298
81.911970
82.393089
82.897822
83.426295
83.978496
84.554363
85.153687
85.776203
86.421495
87.089084
87.778339
88.488566
89.218921
89.968496
90.736244
91.521052
92.321683
93.136842
93.965123
94.805070
95.655137
96.513738
97.379223
98.249910
99.124081
100.000000
100.000000
99.003862
98.009710
97.019523
96.035248
95.058808
94.092065
93.136842
92.194874
91.267842
90.357317
89.464803
88.591674
87.739231
86.908625
86.100932
85.317066
84.557864
83.823994
83.116052
82.434459
81.779569
81.151567
80.550576
79.976557
79.429419
78.908920
78.414776
77.946564
77.503833
77.086009
76.692501
76.322612
75.975640
75.650794
75.347291
75.064276
74.800911
74.556304
74.329589
74.119863
73.926253
73.747866
73.583845
73.433324
73.295478
73.169481
73.054556
72.949930
72.854878
72.768690
72.690703
72.620270
72.556794
72.499695
72.448442
72.402522
72.361469
72.324835
72.292213
72.263220
72.237506
72.214743
72.194636
72.176908
72.161310
72.147613
72.135610
72.125112
72.115949
72.107968
72.101029
72.095009
72.089797
72.085293
72.081408
72.078065
72.075194
72.072733
72.070628
72.068831
72.067300
72.065998
72.064894
72.063959
72.063170
72.062505
72.061946
72.061478
72.061087
72.060762
72.060493
72.060272
72.060092
72.059948
72.059834
72.059747
72.059684
72.059643
72.059623
72.059623
72.059643
72.059684
72.059747
72.059834
72.059948
72.060092
72.060272
72.060493
72.060762
72.061087
72.061478
72.061946
72.062505
72.063170
72.063959
72.064894
72.065998
72.067300
72.068831
72.070628
72.072733
72.075194
72.078065
72.081408
72.085293
72.089797
72.095009
72.101029
72.107968
72.115949
72.125112
72.135610
72.147613
72.161310
72.176908
72.194636
72.214743
72.237506
72.263220
72.292213
72.324835
72.361469
72.402522
72.448442
72.499695
72.556794
72.620270
72.690703
72.768690
72.854878
72.949930
73.054556
73.169481
73.295478
73.433324
73.583845
73.747866
73.926253
74.119863
74.329589
74.556304
74.800911
75.064276
75.347291
75.650794
75.975640
76.322612
76.692501
77.086009
77.503833
77.946564
78.414776
78.908920
79.429419
79.976557
80.550576
81.151567
81.779569
82.434459
83.116052
83.823994
84.557864
85.317066
86.100932
86.908625
87.739231
88.591674
89.464803
90.357317
91.267842
92.194874
93.136842
94.092065
95.058808
96.035248
97.019523
98.009710
99.003862
100.000000
100.000000
98.885547
97.773319
96.665523
95.564346
94.471927
93.390367
92.321683
91.267842
90.230697
89.212035
88.213506
87.236684
86.282984
85.353737
84.450101
83.573146
82.723760
81.902742
81.110703
80.348171
79.615485
78.912910
78.240525
77.598345
76.986210
76.403906
75.851058
75.327251
74.831925
74.364490
73.924234
73.510427
73.122234
72.758819
72.419259
72.102642
71.807988
71.534341
71.280691
71.046066
70.829454
70.629889
70.446382
70.277991
70.123768
69.982814
69.854235
69.737188
69.630844
69.534425
69.447172
69.368378
69.297360
69.233484
69.176141
69.124772
69.078840
69.037858
69.001361
68.968926
68.940157
68.914693
68.892196
68.872364
68.854913
68.839590
68.826161
68.814417
68.804166
68.795237
68.787474
68.780740
68.774908
68.769870
68.765524
68.761785
68.758572
68.755819
68.753464
68.751453
68.749740
68.748284
68.747049
68.746003
68.745120
68.744376
68.743751
68.743228
68.742790
68.742427
68.742126
68.741878
68.741677
68.741515
68.741388
68.741291
68.741221
68.741175
68.741153
68.741153
68.741175
68.741221
68.741291
68.741388
68.741515
68.741677
68.741878
68.742126
68.742427
68.742790
68.743228
68.743751
68.744376
68.745120
68.746003
68.747049
68.748284
68.749740
68.751453
68.753464
68.755819
68.758572
68.761785
68.765524
68.769870
68.774908
68.780740
68.787474
68.795237
68.804166
68.814417
68.826161
68.839590
68.854913
68.872364
68.892196
68.914693
68.940157
68.968926
69.001361
69.037858
69.078840
69.124772
69.176141
69.233484
69.297360
69.368378
69.447172
69.534425
69.630844
69.737188
69.854235
69.982814
70.123768
70.277991
70.446382
70.629889
70.829454
71.046066
71.280691
71.534341
71.807988
72.102642
72.419259
72.758819
73.122234
73.510427
73.924234
74.364490
74.831925
75.327251
75.851058
76.403906
76.986210
77.598345
78.240525
78.912910
79.615485
80.348171
81.110703
81.902742
82.723760
83.573146
84.450101
85.353737
86.282984
87.236684
88.213506
89.212035
90.230697
91.267842
92.321683
93.390367
94.471927
95.564346
96.665523
97.773319
98.885547
100.000000
100.000000
98.769341
97.541137
96.317830
95.101828
93.895505
92.701162
91.521052
90.357317
89.212035
88.087146
86.984509
85.905821
84.852689
83.826536
82.828690
81.860281
80.922344
80.015703
79.141093
78.299036
77.489969
76.714121
75.971643
75.262488
74.586542
73.943507
73.333031
72.754593
72.207635
71.691448
71.205302
70.748335
70.319680
69.918361
69.543410
69.193769
68.868405
68.566215
68.286130
68.027032
67.787846
67.567465
67.364834
67.178879
67.008583
66.852927
66.710949
66.581694
66.464268
66.357791
66.261446
66.174434
66.096016
66.025477
65.962159
65.905431
65.854714
65.809457
65.769157
65.733339
65.701573
65.673452
65.648612
65.626711
65.607442
65.590521
65.575693
65.562724
65.551405
65.541545
65.532973
65.525536
65.519097
65.513533
65.508735
65.504605
65.501058
65.498018
65.495417
65.493197
65.491306
65.489698
65.488334
65.487179
65.486204
65.485383
65.484692
65.484114
65.483631
65.483230
65.482897
65.482624
65.482402
65.482223
65.482083
65.481975
65.481898
65.481848
65.481823
65.481823
65.481848
65.481898
65.481975
65.482083
65.482223
65.482402
65.482624
65.482897
65.483230
65.483631
65.484114
65.484692
65.485383
65.486204
65.487179
65.488334
65.489698
65.491306
65.493197
65.495417
65.498018
65.501058
65.504605
65.508735
65.513533
65.519097
65.525536
65.532973
65.541545
65.551405
65.562724
65.575693
65.590521
65.607442
65.626711
65.648612
65.673452
65.701573
65.733339
65.769157
65.809457
65.854714
65.905431
65.962159
66.025477
66.096016
66.174434
66.261446
66.357791
66.464268
66.581694
66.710949
66.852927
67.008583
67.178879
67.364834
67.567465
67.787846
68.027032
68.286130
68.566215
68.868405
69.193769
69.543410
69.918361
70.319680
70.748335
71.205302
71.691448
72.207635
72.754593
73.333031
73.943507
74.586542
75.262488
75.971643
76.714121
77.489969
78.299036
79.141093
80.015703
80.922344
81.860281
82.828690
83.826536
84.852689
85.905821
86.984509
88.087146
89.212035
90.357317
91.521052
92.701162
93.895505
95.101828
96.317830
97.541137
98.769341
100.000000
100.000000
98.655432
97.313548
95.977010
94.648459
93.330475
92.025591
90.736244
89.464803
88.213506
86.984509
85.779803
84.601286
83.450665
82.329547
81.239328
80.181301
79.156534
78.165994
77.210416
76.290439
75.406471
74.558830
73.747615
72.972840
72.234315
71.531781
70.864786
70.232828
69.635231
69.071285
68.540130
68.040884
67.572543
67.134095
66.724428
66.342441
65.986952
65.656807
65.350789
65.067723
64.806390
64.565624
64.344230
64.141074
63.955011
63.784958
63.629833
63.488623
63.360324
63.243999
63.138733
63.043674
62.957994
62.880932
62.811751
62.749777
62.694364
62.644921
62.600890
62.561760
62.527052
62.496331
62.469191
62.445265
62.424212
62.405726
62.389525
62.375357
62.362990
62.352218
62.342853
62.334728
62.327693
62.321615
62.316372
62.311861
62.307985
62.304664
62.301822
62.299397
62.297331
62.295574
62.294084
62.292822
62.291757
62.290860
62.290105
62.289474
62.288946
62.288507
62.288144
62.287846
62.287603
62.287408
62.287254
62.287137
62.287052
62.286998
62.286971
62.286971
62.286998
62.287052
62.287137
62.287254
62.287408
62.287603
62.287846
62.288144
62.288507
62.288946
62.289474
62.290105
62.290860
62.291757
62.292822
62.294084
62.295574
62.297331
62.299397
62.301822
62.304664
62.307985
62.311861
62.316372
62.321615
62.327693
62.334728
62.342853
62.352218
62.362990
62.375357
62.389525
62.405726
62.424212
62.445265
62.469191
62.496331
62.527052
62.561760
62.600890
62.644921
62.694364
62.749777
62.811751
62.880932
62.957994
63.043674
63.138733
63.243999
63.360324
63.488623
63.629833
63.784958
63.955011
64.141074
64.344230
64.565624
64.806390
65.067723
65.350789
65.656807
65.986952
66.342441
66.724428
67.134095
67.572543
68.040884
68.540130
69.071285
69.635231
70.232828
70.864786
71.531781
72.234315
72.972840
73.747615
74.558830
75.406471
76.290439
77.210416
78.165994
79.156534
80.181301
81.239328
82.329547
83.450665
84.601286
85.779803
86.984509
88.213506
89.464803
90.736244
92.025591
93.330475
94.648459
95.977010
97.313548
98.655432
100.000000
100.000000
98.543999
97.090901
95.643598
94.204937
92.777728
91.364693
89.968496
88.591674
87.236684
85.905821
84.601286
83.325084
82.079119
80.865072
79.684517
78.538789
77.429112
76.356464
75.321711
74.325473
73.368265
72.450360
71.571934
70.732934
69.933224
69.172451
68.450199
67.765852
67.118749
66.508053
65.932896
65.392263
64.885126
64.410330
63.966729
63.553074
63.168140
62.810624
62.479260
62.172726
61.889749
61.629022
61.389292
61.169294
60.967821
60.783669
60.615698
60.462780
60.323857
60.197888
60.083905
59.980964
59.888191
59.804739
59.729830
59.662718
59.602717
59.549175
59.501498
59.459124
59.421543
59.388275
59.358888
59.332978
59.310182
59.290164
59.272622
59.257279
59.243888
59.232223
59.222083
59.213285
59.205667
59.199085
59.193408
59.188523
59.184327
59.180730
59.177654
59.175027
59.172790
59.170887
59.169274
59.167908
59.166754
59.165783
59.164966
59.164282
59.163711
59.163236
59.162843
59.162520
59.162257
59.162045
59.161879
59.161752
59.161660
59.161601
59.161571
59.161571
59.161601
59.161660
59.161752
59.161879
59.162045
59.162257
59.162520
59.162843
59.163236
59.163711
59.164282
59.164966
59.165783
59.166754
59.167908
59.169274
59.170887
59.172790
59.175027
59.177654
59.180730
59.184327
59.188523
59.193408
59.199085
59.205667
59.213285
59.222083
59.232223
59.243888
59.257279
59.272622
59.290164
59.310182
59.332978
59.358888
59.388275
59.421543
59.459124
59.501498
59.549175
59.602717
59.662718
59.729830
59.804739
59.888191
59.980964
60.083905
60.197888
60.323857
60.462780
60.615698
60.783669
60.967821
61.169294
61.389292
61.629022
61.889749
62.172726
62.479260
62.810624
63.168140
63.553074
63.966729
64.410330
64.885126
65.392263
65.932896
66.508053
67.118749
67.765852
68.450199
69.172451
69.933224
70.732934
71.571934
72.450360
73.368265
74.325473
75.321711
76.356464
77.429112
78.538789
79.684517
80.865072
82.079119
83.325084
84.601286
85.905821
87.236684
88.591674
89.968496
91.364693
92.777728
94.204937
95.643598
97.090901
98.543999
100.000000
100.000000
98.435203
96.873530
95.318078
93.771923
92.238064
90.719452
89.218921
87.739231
86.282984
84.852689
83.450665
82.079119
80.740039
79.435295
78.166512
76.935192
75.742583
74.589805
73.477718
72.407062
71.378314
70.391844
69.447765
68.546096
67.686615
66.869019
66.092784
65.357325
64.661855
64.005548
63.387402
62.806393
62.261350
61.751096
61.274338
60.829793
60.416086
60.031874
59.675741
59.346318
59.042189
58.761994
58.504345
58.267920
58.051388
57.853487
57.672960
57.508626
57.359318
57.223946
57.101443
56.990817
56.891108
56.801427
56.720919
56.648797
56.584311
56.526773
56.475532
56.429996
56.389605
56.353855
56.322271
56.294427
56.269927
56.248415
56.229562
56.213075
56.198683
56.186147
56.175249
56.165794
56.157608
56.150534
56.144433
56.139183
56.134674
56.130809
56.127502
56.124680
56.122275
56.120231
56.118497
56.117029
56.115789
56.114745
56.113867
56.113132
56.112518
56.112008
56.111585
56.111238
56.110956
56.110728
56.110550
56.110413
56.110315
56.110251
56.110219
56.110219
56.110251
56.110315
56.110413
56.110550
56.110728
56.110956
56.111238
56.111585
56.112008
56.112518
56.113132
56.113867
56.114745
56.115789
56.117029
56.118497
56.120231
56.122275
56.124680
56.127502
56.130809
56.134674
56.139183
56.144433
56.150534
56.157608
56.165794
56.175249
56.186147
56.198683
56.213075
56.229562
56.248415
56.269927
56.294427
56.322271
56.353855
56.389605
56.429996
56.475532
56.526773
56.584311
56.648797
56.720919
56.801427
56.891108
56.990817
57.101443
57.223946
57.359318
57.508626
57.672960
57.853487
58.051388
58.267920
58.504345
58.761994
59.042189
59.346318
59.675741
60.031874
60.416086
60.829793
61.274338
61.751096
62.261350
62.806393
63.387402
64.005548
64.661855
65.357325
66.092784
66.869019
67.686615
68.546096
69.447765
70.391844
71.378314
72.407062
73.477718
74.589805
75.742583
76.935192
78.166512
79.435295
80.740039
82.079119
83.450665
84.852689
86.282984
87.739231
89.218921
90.719452
92.238064
93.771923
95.318078
96.873530
98.435203
100.000000
100.000000
98.329197
96.661726
95.000905
93.350001
91.712238
90.090740
88.488566
86.908625
85.353737
83.826536
82.329547
80.865072
79.435295
78.042146
76.687429
75.372679
74.099298
72.868410
71.681007
70.537803
69.439387
68.386072
67.378061
66.415294
65.497612
64.624613
63.795816
63.010519
62.267958
61.567177
60.907178
60.286796
59.704850
59.160019
58.650983
58.176312
57.734598
57.324348
56.944107
56.592359
56.267643
55.968459
55.693371
55.440924
55.209735
54.998422
54.805677
54.630206
54.470793
54.326247
54.195453
54.077331
53.970875
53.875116
53.789160
53.712150
53.643300
53.581863
53.527156
53.478533
53.435410
53.397236
53.363516
53.333785
53.307628
53.284658
53.264530
53.246925
53.231560
53.218175
53.206539
53.196444
53.187703
53.180150
53.173637
53.168031
53.163217
53.159090
53.155560
53.152546
53.149979
53.147796
53.145945
53.144377
53.143054
53.141939
53.141002
53.140217
53.139561
53.139016
53.138565
53.138195
53.137893
53.137651
53.137460
53.137314
53.137209
53.137141
53.137107
53.137107
53.137141
53.137209
53.137314
53.137460
53.137651
53.137893
53.138195
53.138565
53.139016
53.139561
53.140217
53.141002
53.141939
53.143054
53.144377
53.145945
53.147796
53.149979
53.152546
53.155560
53.159090
53.163217
53.168031
53.173637
53.180150
53.187703
53.196444
53.206539
53.218175
53.231560
53.246925
53.264530
53.284658
53.307628
53.333785
53.363516
53.397236
53.435410
53.478533
53.527156
53.581863
53.643300
53.712150
53.789160
53.875116
53.970875
54.077331
54.195453
54.326247
54.470793
54.630206
54.805677
54.998422
55.209735
55.440924
55.693371