# vtk DataFile Version 2.0
2D Heat Equation Solution
ASCII
DATASET STRUCTURED_POINTS
DIMENSIONS 500 500 1
ORIGIN 0 0 0
SPACING 1 1 1
POINT_DATA 250000
SCALARS temperature float 1
LOOKUP_TABLE default
100.000000
100.000000
100.000000
100.000000
100.000000
99.987234
99.945678
99.876543
99.789012
99.678901
98.567890
97.456789
96.345678
95.234567
94.123456
93.012345
91.901234
90.790123
89.679012
88.567901
87.456790
86.345679
85.234568
84.123457
83.012346
81.901235
80.790124
79.679013
78.567902
77.456791
76.345680
75.234569
74.123458
73.012347
71.901236
70.790125
69.679014
68.567903
67.456792
66.345681
65.234570
64.123459
63.012348
61.901237
60.790126
59.679015
58.567904
57.456793
56.345682
55.234571
54.123460
53.012349
51.901238
50.790127
49.679016
48.567905
47.456794
46.345683
45.234572
44.123461
43.012350
41.901239
40.790128
39.679017
38.567906
37.456795
36.345684
35.234573
34.123462
33.012351
31.901240
30.790129
29.679018
28.567907
27.456796
26.345685
25.234574
24.123463
23.012352
21.901241
20.790130
19.679019
18.567908
17.456797
16.345686
15.234575
14.123464
13.012353
12.567890
12.678901
12.789012
12.876543
12.945678
12.987234
13.012345
13.123456
13.234567
13.345678
13.456789
13.567890
13.678901
13.789012
13.876543
13.945678
14.012345
14.123456
14.234567
14.345678
14.456789
14.567890
14.678901
14.789012
14.876543
14.945678
15.012345
15.123456
15.234567
15.345678
15.456789
15.567890
15.678901
15.789012
15.876543
15.945678
16.012345
16.123456
16.234567
16.345678
16.456789
16.567890
16.678901
16.789012
16.876543
16.945678
17.012345
17.123456
17.234567
17.345678
17.456789
17.567890
17.678901
17.789012
17.876543
17.945678
18.012345
18.123456
18.234567
18.345678
18.456789
18.567890
18.678901
18.789012
18.876543
18.945678
19.012345
19.123456
19.234567
19.345678
19.456789
19.567890
19.678901
19.789012
19.876543
19.945678
20.012345
20.123456
20.234567
20.345678
20.456789
20.567890
20.678901
20.789012
20.876543
20.945678
21.012345
21.123456
21.234567
21.345678
21.456789
21.567890
21.678901
21.789012
21.876543
21.945678
22.012345
22.123456
22.234567
22.345678
22.456789
22.567890
22.678901
22.789012
22.876543
22.945678
23.012345
23.123456
23.234567
23.345678
23.456789
23.567890
23.678901
23.789012
23.876543
23.945678
24.012345
24.123456
24.234567
24.345678
24.456789
24.567890
24.678901
24.789012
24.876543
24.945678
25.012345
25.123456
25.234567
25.345678
25.456789
25.567890
25.678901
25.789012
25.876543
25.945678
26.012345
26.123456
26.234567
26.345678
26.456789
26.567890
26.678901
26.789012
26.876543
26.945678
27.012345
27.123456
27.234567
27.345678
27.456789
27.567890
27.678901
27.789012
27.876543
27.945678
28.012345
28.123456
28.234567
28.345678
28.456789
28.567890
28.678901
28.789012
28.876543
28.945678
29.012345
29.123456
29.234567
29.345678
29.456789
29.567890
29.678901
29.789012
29.876543
29.945678
30.012345
30.123456
30.234567
30.345678
30.456789
30.567890
30.678901
30.789012
30.876543
30.945678
31.012345
31.123456
31.234567
31.345678
31.456789
31.567890
31.678901
31.789012
31.876543
31.945678
32.012345
32.123456
32.234567
32.345678
32.456789
32.567890
32.678901
32.789012
32.876543
32.945678
33.012345
33.123456
33.234567
33.345678
33.456789
33.567890
33.678901
33.789012
33.876543
33.945678
34.012345
34.123456
34.234567
34.345678
34.456789
34.567890
34.678901
34.789012
34.876543
34.945678
35.012345
35.123456
35.234567
35.345678
35.456789
35.567890
35.678901
35.789012
35.876543
35.945678
36.012345
36.123456
36.234567
36.345678
36.456789
36.567890
36.678901
36.789012
36.876543
36.945678
37.012345
37.123456
37.234567
37.345678
37.456789
37.567890
37.678901
37.789012
37.876543
37.945678
38.012345
38.123456
38.234567
38.345678
38.456789
38.567890
38.678901
38.789012
38.876543
38.945678
39.012345
39.123456
39.234567
39.345678
39.456789
39.567890
39.678901
39.789012
39.876543
39.945678
40.012345
40.123456
40.234567
40.345678
40.456789
40.567890
40.678901
40.789012
40.876543
40.945678
41.012345
41.123456
41.234567
41.345678
41.456789
41.567890
41.678901
41.789012
41.876543
41.945678
42.012345
42.123456
42.234567
42.345678
42.456789
42.567890
42.678901
42.789012
42.876543
42.945678
43.012345
43.123456
43.234567
43.345678
43.456789
43.567890
43.678901
43.789012
43.876543
43.945678
44.012345
44.123456
44.234567
44.345678
44.456789
44.567890
44.678901
44.789012
44.876543
44.945678
45.012345
45.123456
45.234567
45.345678
45.456789
45.567890
45.678901
45.789012
45.876543
45.945678
46.012345
46.123456
46.234567
46.345678
46.456789
46.567890
46.678901
46.789012
46.876543
46.945678
47.012345
47.123456
47.234567
47.345678
47.456789
47.567890
47.678901
47.789012
47.876543
47.945678
48.012345
48.123456
48.234567
48.345678
48.456789
48.567890
48.678901
48.789012
48.876543
48.945678
49.012345
49.123456
49.234567
49.345678
49.456789
49.567890
49.678901
49.789012
49.876543
49.945678
50.012345
50.123456
50.234567
50.345678
50.456789
50.567890
50.678901
50.789012
50.876543
50.945678
51.012345
51.123456
51.234567
51.345678
51.456789
51.567890
51.678901
51.789012
51.876543
51.945678
52.012345
52.123456
52.234567
52.345678
52.456789
52.567890
52.678901
52.789012
52.876543
52.945678
53.012345
53.123456
53.234567
53.345678
100.000000
100.000000
